7
gdb_34
O         -0.03740        1.44550        0.01010
C          0.01290        0.03440        0.00210
C         -1.35750       -0.48870        0.01240
N         -2.42140       -0.93690        0.02020
H          0.86900        1.76970        0.00420
H          0.51690       -0.36330       -0.89220
H          0.53390       -0.37280        0.88220
